/*--------------------------------*- C++ -*----------------------------------*\
  =========                 |
  \\      /  F ield         | OpenFOAM: The Open Source CFD Toolbox
   \\    /   O peration     | Website:  https://openfoam.org
    \\  /    A nd           | Version:  6
     \\/     M anipulation  |
\*---------------------------------------------------------------------------*/
FoamFile
{
    version     2.0;
    format      ascii;
    class       volVectorField;
    location    "0.005";
    object      U;
}
// * * * * * * * * * * * * * * * * * * * * * * * * * * * * * * * * * * * * * //

dimensions      [0 1 -1 0 0 0 0];

internalField   nonuniform List<vector> 
400
(
(0.00109959 0.00240306 0)
(-0.00275134 0.00334888 0)
(-0.00515606 0.00166228 0)
(-0.00848884 0.00123752 0)
(-0.0102381 0.000970362 0)
(-0.0118072 0.000775937 0)
(-0.0130976 0.000600353 0)
(-0.0140743 0.000424113 0)
(-0.0147092 0.000242796 0)
(-0.014983 5.76771e-05 0)
(-0.014884 -0.00012968 0)
(-0.0144069 -0.000316241 0)
(-0.0135569 -0.000496369 0)
(-0.012352 -0.000663505 0)
(-0.0108213 -0.000812256 0)
(-0.00900239 -0.000939087 0)
(-0.00693599 -0.00104187 0)
(-0.00468623 -0.00111752 0)
(-0.00230478 -0.00112213 0)
(-0.000661104 -0.000643423 0)
(0.00104285 0.00183678 0)
(-0.00164873 0.00663334 0)
(-0.00682175 0.00482428 0)
(-0.0112181 0.00403858 0)
(-0.0147732 0.00339601 0)
(-0.0178172 0.00280625 0)
(-0.0203112 0.00220717 0)
(-0.0222174 0.00157861 0)
(-0.023506 0.000921482 0)
(-0.024161 0.00024645 0)
(-0.0241747 -0.000435784 0)
(-0.0235464 -0.00111337 0)
(-0.0222913 -0.00176958 0)
(-0.0204411 -0.00238506 0)
(-0.0180389 -0.00294151 0)
(-0.0151384 -0.00342313 0)
(-0.0117995 -0.00381625 0)
(-0.00812315 -0.00410623 0)
(-0.00421485 -0.00407402 0)
(-0.00118109 -0.00229472 0)
(-0.000724264 0.00430279 0)
(-0.00387036 0.00936578 0)
(-0.00798855 0.00889682 0)
(-0.0122025 0.00789261 0)
(-0.01595 0.00685106 0)
(-0.0191899 0.00573408 0)
(-0.0218615 0.00453651 0)
(-0.0239132 0.00326691 0)
(-0.0253053 0.00194358 0)
(-0.0260195 0.000592852 0)
(-0.0260494 -0.00076353 0)
(-0.0253911 -0.00210412 0)
(-0.0240566 -0.00339922 0)
(-0.0220791 -0.00461502 0)
(-0.0195052 -0.00571978 0)
(-0.0163907 -0.00668438 0)
(-0.0127967 -0.00747982 0)
(-0.00882616 -0.00807455 0)
(-0.00459448 -0.0080825 0)
(-0.00126589 -0.00479009 0)
(-0.00115351 0.00583959 0)
(-0.00466803 0.0129035 0)
(-0.00900166 0.0128813 0)
(-0.0133142 0.0117217 0)
(-0.0172214 0.0103233 0)
(-0.0206027 0.00871387 0)
(-0.0233895 0.00693388 0)
(-0.0255277 0.00502247 0)
(-0.0269733 0.00301927 0)
(-0.0277085 0.000971068 0)
(-0.0277318 -0.00108593 0)
(-0.0270358 -0.00312168 0)
(-0.025625 -0.00509512 0)
(-0.023531 -0.00695628 0)
(-0.0208025 -0.0086554 0)
(-0.0174963 -0.0101453 0)
(-0.0136714 -0.0113785 0)
(-0.00943273 -0.0123047 0)
(-0.00490184 -0.0123483 0)
(-0.00135004 -0.00741696 0)
(-0.00143631 0.0089858 0)
(-0.00536795 0.0173346 0)
(-0.0101282 0.0173364 0)
(-0.0147517 0.0158797 0)
(-0.0189473 0.0140408 0)
(-0.0225674 0.0118829 0)
(-0.0255401 0.00947744 0)
(-0.0278142 0.00688629 0)
(-0.0293427 0.00416464 0)
(-0.0301105 0.0013791 0)
(-0.030128 -0.00141821 0)
(-0.0293864 -0.00419141 0)
(-0.0278777 -0.00689216 0)
(-0.0256265 -0.00945463 0)
(-0.0226823 -0.0118075 0)
(-0.0191034 -0.0138805 0)
(-0.0149473 -0.0156038 0)
(-0.0103236 -0.0169047 0)
(-0.00536409 -0.0169947 0)
(-0.00147744 -0.0102552 0)
(-0.0016716 0.0123555 0)
(-0.00610516 0.0223399 0)
(-0.0114816 0.0222978 0)
(-0.0165917 0.0204561 0)
(-0.0211965 0.01809 0)
(-0.0251417 0.0153026 0)
(-0.0283599 0.012201 0)
(-0.030813 0.00887138 0)
(-0.0324522 0.00537871 0)
(-0.0332627 0.00180498 0)
(-0.0332737 -0.0017801 0)
(-0.0324815 -0.00533656 0)
(-0.0308607 -0.00881555 0)
(-0.0284201 -0.0121409 0)
(-0.0252041 -0.0152194 0)
(-0.021271 -0.0179529 0)
(-0.0166775 -0.0202413 0)
(-0.0115408 -0.0219812 0)
(-0.00600859 -0.0221389 0)
(-0.00165665 -0.0133923 0)
(-0.00192931 0.0161215 0)
(-0.0069942 0.0280538 0)
(-0.0131615 0.027902 0)
(-0.0189221 0.0255681 0)
(-0.0240563 0.0225651 0)
(-0.0284067 0.0190404 0)
(-0.0319178 0.0151454 0)
(-0.0345806 0.0109971 0)
(-0.0363518 0.00666664 0)
(-0.0372113 0.00224166 0)
(-0.0372116 -0.00219151 0)
(-0.0363645 -0.00658795 0)
(-0.0346262 -0.0109048 0)
(-0.031977 -0.0150647 0)
(-0.0284446 -0.0189571 0)
(-0.0240808 -0.0224517 0)
(-0.0189382 -0.0254082 0)
(-0.0131438 -0.0276787 0)
(-0.00686951 -0.0279418 0)
(-0.00189686 -0.0169474 0)
(-0.00224957 0.0204144 0)
(-0.00812048 0.0346411 0)
(-0.0152743 0.0343002 0)
(-0.021851 0.0313318 0)
(-0.0276327 0.027547 0)
(-0.0324595 0.0231483 0)
(-0.0362943 0.0183381 0)
(-0.0391784 0.0132724 0)
(-0.0410916 0.00802904 0)
(-0.0420036 0.00268519 0)
(-0.041986 -0.00266576 0)
(-0.0410787 -0.00797189 0)
(-0.0392242 -0.0131982 0)
(-0.0363636 -0.0182759 0)
(-0.0324892 -0.0230858 0)
(-0.0276307 -0.0274666 0)
(-0.021827 -0.0312273 0)
(-0.0152131 -0.0341561 0)
(-0.00799225 -0.0345881 0)
(-0.00221043 -0.021056 0)
(-0.00266298 0.0254015 0)
(-0.00956829 0.042328 0)
(-0.0179472 0.0416873 0)
(-0.0255145 0.0378873 0)
(-0.0320513 0.0331251 0)
(-0.0374073 0.0276799 0)
(-0.0415721 0.0218092 0)
(-0.0446598 0.0157107 0)
(-0.0467044 0.00947554 0)
(-0.0476694 0.00315323 0)
(-0.0476319 -0.00318152 0)
(-0.0466624 -0.00947566 0)
(-0.0447004 -0.0157001 0)
(-0.0416432 -0.0217998 0)
(-0.0374271 -0.0276575 0)
(-0.0320339 -0.0330862 0)
(-0.0254671 -0.0378367 0)
(-0.0178568 -0.041608 0)
(-0.00944172 -0.0423148 0)
(-0.00261667 -0.0258851 0)
(-0.00320176 0.0313051 0)
(-0.0114423 0.0514198 0)
(-0.0213398 0.0503078 0)
(-0.0300799 0.0453931 0)
(-0.037452 0.0393827 0)
(-0.0433498 0.0326715 0)
(-0.0478134 0.0255736 0)
(-0.051047 0.0183157 0)
(-0.0531756 0.0110089 0)
(-0.0541835 0.00366887 0)
(-0.0541378 -0.00368668 0)
(-0.0531239 -0.0110311 0)
(-0.0510833 -0.0183474 0)
(-0.047871 -0.0255974 0)
(-0.0433501 -0.0326741 0)
(-0.0374219 -0.0393724 0)
(-0.0300156 -0.0453785 0)
(-0.0212266 -0.0502708 0)
(-0.0113183 -0.0514321 0)
(-0.00314852 -0.0316521 0)
(-0.00391016 0.0384274 0)
(-0.0138911 0.0623124 0)
(-0.0256595 0.0604398 0)
(-0.0357471 0.0539899 0)
(-0.0439741 0.0463464 0)
(-0.0503469 0.0380814 0)
(-0.0550141 0.0295681 0)
(-0.0582846 0.0210297 0)
(-0.0603972 0.0125778 0)
(-0.0614047 0.00420381 0)
(-0.0613717 -0.00416077 0)
(-0.0603691 -0.0125637 0)
(-0.0583268 -0.0210319 0)
(-0.0550561 -0.0295595 0)
(-0.0503326 -0.0380629 0)
(-0.0439395 -0.0463293 0)
(-0.035673 -0.0539749 0)
(-0.0255363 -0.0604152 0)
(-0.0137796 -0.0623378 0)
(-0.00386037 -0.0386556 0)
(-0.00486132 0.0471886 0)
(-0.0171363 0.0754943 0)
(-0.0311731 0.0723504 0)
(-0.0427319 0.0637331 0)
(-0.0517153 0.0539182 0)
(-0.0583532 0.0437258 0)
(-0.0630123 0.0335877 0)
(-0.0661401 0.0236864 0)
(-0.0680811 0.0140627 0)
(-0.0689918 0.00467262 0)
(-0.0689751 -0.00464104 0)
(-0.0680746 -0.01404 0)
(-0.0661819 -0.0236481 0)
(-0.0630491 -0.0335361 0)
(-0.058345 -0.0436786 0)
(-0.0516888 -0.0538816 0)
(-0.0426602 -0.0636961 0)
(-0.0310666 -0.0723246 0)
(-0.0170585 -0.0755267 0)
(-0.00483403 -0.0473207 0)
(-0.0061808 0.0581898 0)
(-0.0215005 0.091547 0)
(-0.0381872 0.0862342 0)
(-0.0511737 0.0745149 0)
(-0.0605931 0.0618289 0)
(-0.0670574 0.0492798 0)
(-0.0713009 0.037312 0)
(-0.0739851 0.0260366 0)
(-0.0755501 0.0153341 0)
(-0.0762327 0.00504293 0)
(-0.0762084 -0.00509337 0)
(-0.0755153 -0.0153615 0)
(-0.0739985 -0.026024 0)
(-0.071334 -0.0372886 0)
(-0.067058 -0.0492539 0)
(-0.0605687 -0.0618092 0)
(-0.0511104 -0.0744831 0)
(-0.0381211 -0.0862344 0)
(-0.0214701 -0.0915932 0)
(-0.0061833 -0.0582616 0)
(-0.00806504 0.0723277 0)
(-0.027403 0.111141 0)
(-0.0469149 0.102121 0)
(-0.0608586 0.0859551 0)
(-0.0699735 0.0695682 0)
(-0.0754951 0.0542729 0)
(-0.0786657 0.0403722 0)
(-0.0804178 0.0277985 0)
(-0.0813212 0.0162421 0)
(-0.0816445 0.00532353 0)
(-0.0816047 -0.00537203 0)
(-0.0812517 -0.0162733 0)
(-0.0804088 -0.0278051 0)
(-0.0786892 -0.0403653 0)
(-0.0754905 -0.0542625 0)
(-0.0699411 -0.0695851 0)
(-0.0608067 -0.0859667 0)
(-0.0468859 -0.10218 0)
(-0.0273988 -0.111202 0)
(-0.00806648 -0.0723761 0)
(-0.0107609 0.090973 0)
(-0.0352463 0.134913 0)
(-0.057072 0.119615 0)
(-0.0705934 0.0971352 0)
(-0.0779209 0.0761363 0)
(-0.0812523 0.0578041 0)
(-0.0824487 0.0421091 0)
(-0.0826316 0.0285346 0)
(-0.0824697 0.0165127 0)
(-0.0822638 0.00541089 0)
(-0.0822222 -0.00539225 0)
(-0.0823929 -0.0164976 0)
(-0.0826068 -0.0285157 0)
(-0.0824648 -0.0420798 0)
(-0.0812766 -0.0578066 0)
(-0.0779183 -0.0761632 0)
(-0.0705712 -0.0971639 0)
(-0.0570553 -0.11968 0)
(-0.0352225 -0.134956 0)
(-0.0107076 -0.0910065 0)
(-0.0144225 0.116158 0)
(-0.0449684 0.162884 0)
(-0.0668175 0.137087 0)
(-0.0768514 0.105966 0)
(-0.0798209 0.0797296 0)
(-0.0790732 0.0585245 0)
(-0.07704 0.0415456 0)
(-0.0749197 0.0276245 0)
(-0.0732654 0.0157886 0)
(-0.0723389 0.0051426 0)
(-0.0723026 -0.00512716 0)
(-0.0731956 -0.0157853 0)
(-0.0748965 -0.0276251 0)
(-0.0770848 -0.0415381 0)
(-0.0791246 -0.0585425 0)
(-0.0798145 -0.0797309 0)
(-0.0768372 -0.106 0)
(-0.0667966 -0.137075 0)
(-0.0449246 -0.162887 0)
(-0.014323 -0.11616 0)
(-0.0184687 0.150157 0)
(-0.0545444 0.192333 0)
(-0.070039 0.149893 0)
(-0.0704886 0.108468 0)
(-0.0649757 0.0773925 0)
(-0.0577954 0.0545999 0)
(-0.0511899 0.037625 0)
(-0.0460219 0.0245064 0)
(-0.0425044 0.0138237 0)
(-0.040705 0.00447143 0)
(-0.0406755 -0.00446739 0)
(-0.0424436 -0.0138351 0)
(-0.0459928 -0.0245299 0)
(-0.0512232 -0.0376433 0)
(-0.0578284 -0.0546137 0)
(-0.0649888 -0.0773889 0)
(-0.0704536 -0.108442 0)
(-0.0699911 -0.149837 0)
(-0.0545377 -0.192369 0)
(-0.0184325 -0.15007 0)
(-0.0181951 0.199084 0)
(-0.0545017 0.215815 0)
(-0.048867 0.148539 0)
(-0.0296557 0.0982424 0)
(-0.0105346 0.0655815 0)
(0.00554849 0.0441716 0)
(0.0176781 0.0294824 0)
(0.0262283 0.0188138 0)
(0.0316911 0.0104923 0)
(0.0343729 0.00338835 0)
(0.0343939 -0.00335082 0)
(0.0317336 -0.010484 0)
(0.0262447 -0.0188393 0)
(0.017643 -0.0295108 0)
(0.00551906 -0.0441688 0)
(-0.0104888 -0.0655614 0)
(-0.0295898 -0.0981991 0)
(-0.0489246 -0.14859 0)
(-0.0544755 -0.215744 0)
(-0.0181661 -0.199135 0)
(0.0132864 0.237332 0)
(-0.00329799 0.205304 0)
(0.051896 0.116428 0)
(0.103408 0.0677389 0)
(0.138596 0.041563 0)
(0.163196 0.0265036 0)
(0.17989 0.0170854 0)
(0.190928 0.0106736 0)
(0.197692 0.00588426 0)
(0.200922 0.00189674 0)
(0.200926 -0.00186013 0)
(0.197699 -0.0058786 0)
(0.190927 -0.0107044 0)
(0.179881 -0.017119 0)
(0.1632 -0.026498 0)
(0.13862 -0.0415412 0)
(0.103383 -0.0677603 0)
(0.0519701 -0.116459 0)
(-0.0033485 -0.205373 0)
(0.0132727 -0.237319 0)
(0.275516 0.124377 0)
(0.338211 0.087867 0)
(0.439462 0.0421969 0)
(0.505348 0.0221756 0)
(0.538507 0.012755 0)
(0.558421 0.00781167 0)
(0.570838 0.00491439 0)
(0.578651 0.00303338 0)
(0.583293 0.0016704 0)
(0.585472 0.000547087 0)
(0.585481 -0.000518603 0)
(0.583311 -0.00167289 0)
(0.578658 -0.00307119 0)
(0.570822 -0.00495249 0)
(0.558394 -0.00780589 0)
(0.538501 -0.0127264 0)
(0.505387 -0.0222122 0)
(0.439382 -0.042239 0)
(0.338209 -0.0879557 0)
(0.275545 -0.124363 0)
)
;

boundaryField
{
    movingWall
    {
        type            fixedValue;
        value           uniform (1 0 0);
    }
    fixedWalls
    {
        type            noSlip;
    }
    frontAndBack
    {
        type            empty;
    }
}


// ************************************************************************* //
