/*--------------------------------*- C++ -*----------------------------------*\
| =========                 |                                                 |
| \\      /  F ield         | OpenFOAM: The Open Source CFD Toolbox           |
|  \\    /   O peration     | Version:  5.x                                   |
|   \\  /    A nd           | Web:      www.OpenFOAM.org                      |
|    \\/     M anipulation  |                                                 |
\*---------------------------------------------------------------------------*/
FoamFile
{
    version     2.0;
    format      ascii;
    class       volScalarField;
    location    "0.005";
    object      out_1;
}
// * * * * * * * * * * * * * * * * * * * * * * * * * * * * * * * * * * * * * //

dimensions      [0 2 -2 0 0 0 0];

internalField   nonuniform List<scalar> 
400
(
2.13519e-34
1.14283e+07
4.85857e-09
1.14283e+07
4.85851e-09
1.14283e+07
4.86368e-09
1.14283e+07
4.86369e-09
1.14283e+07
4.86377e-09
1.14283e+07
4.86379e-09
1.14283e+07
4.8638e-09
1.14283e+07
4.86381e-09
1.14283e+07
4.86395e-09
1.14283e+07
4.86396e-09
1.14283e+07
4.86398e-09
1.14283e+07
4.86399e-09
1.14283e+07
4.86401e-09
1.14283e+07
4.86402e-09
1.14283e+07
4.86403e-09
1.14283e+07
4.86405e-09
1.14283e+07
4.8643e-09
1.14283e+07
4.86431e-09
1.14283e+07
4.86433e-09
1.14283e+07
4.86434e-09
1.14283e+07
4.86435e-09
1.14283e+07
4.86437e-09
1.14283e+07
4.86438e-09
1.14283e+07
4.8644e-09
1.14283e+07
4.86441e-09
1.14283e+07
4.86443e-09
1.14283e+07
4.86444e-09
1.14283e+07
4.86445e-09
1.14283e+07
4.86447e-09
1.14283e+07
4.86448e-09
1.14283e+07
4.8645e-09
1.14283e+07
4.86451e-09
1.14283e+07
4.86499e-09
1.14283e+07
4.865e-09
1.14283e+07
4.86502e-09
1.14283e+07
4.86503e-09
1.14283e+07
4.86504e-09
1.14283e+07
4.86506e-09
1.14283e+07
4.86507e-09
1.14283e+07
4.86509e-09
1.14283e+07
4.8651e-09
1.14283e+07
4.86511e-09
1.14283e+07
4.86513e-09
1.14283e+07
4.86514e-09
1.14283e+07
4.86516e-09
1.14283e+07
4.86517e-09
1.14283e+07
4.86519e-09
1.14283e+07
4.8652e-09
1.14283e+07
4.86521e-09
1.14283e+07
4.86523e-09
1.14283e+07
4.86524e-09
1.14283e+07
4.86526e-09
1.14283e+07
4.86527e-09
1.14283e+07
4.86529e-09
1.14283e+07
4.8653e-09
1.14283e+07
4.86531e-09
1.14283e+07
4.86533e-09
1.14283e+07
4.86534e-09
1.14283e+07
4.86536e-09
1.14283e+07
4.86537e-09
1.14283e+07
4.86538e-09
1.14283e+07
4.8654e-09
1.14283e+07
4.86541e-09
1.14283e+07
4.86543e-09
1.14283e+07
4.86636e-09
1.14283e+07
4.86637e-09
1.14283e+07
4.86639e-09
1.14283e+07
4.8664e-09
1.14283e+07
4.86641e-09
1.14283e+07
4.86643e-09
1.14283e+07
4.86644e-09
1.14283e+07
4.86646e-09
1.14283e+07
4.86647e-09
1.14283e+07
4.86649e-09
1.14283e+07
4.8665e-09
1.14283e+07
4.86651e-09
1.14283e+07
4.86653e-09
1.14283e+07
4.86654e-09
1.14283e+07
4.86656e-09
1.14283e+07
4.86657e-09
1.14283e+07
4.86659e-09
1.14283e+07
4.8666e-09
1.14283e+07
4.86661e-09
1.14283e+07
4.86663e-09
1.14283e+07
4.86664e-09
1.14283e+07
4.86666e-09
1.14283e+07
4.86667e-09
1.14283e+07
4.86668e-09
1.14283e+07
4.8667e-09
1.14283e+07
4.86671e-09
1.14283e+07
4.86673e-09
1.14283e+07
4.86674e-09
1.14283e+07
4.86676e-09
1.14283e+07
4.86677e-09
1.14283e+07
4.86678e-09
1.14283e+07
4.8668e-09
1.14283e+07
4.86681e-09
1.14283e+07
4.86683e-09
1.14283e+07
4.86684e-09
1.14283e+07
4.86686e-09
1.14283e+07
4.86687e-09
1.14283e+07
4.86688e-09
1.14283e+07
4.8669e-09
1.14283e+07
4.86691e-09
1.14283e+07
4.86693e-09
1.14283e+07
4.86694e-09
1.14283e+07
4.86695e-09
1.14283e+07
4.86697e-09
1.14283e+07
4.86698e-09
1.14283e+07
4.867e-09
1.14283e+07
4.86701e-09
1.14283e+07
4.86703e-09
1.14283e+07
4.86704e-09
1.14283e+07
4.86705e-09
1.14283e+07
4.86707e-09
1.14283e+07
4.86708e-09
1.14283e+07
4.8671e-09
1.14283e+07
4.86711e-09
1.14283e+07
4.86713e-09
1.14283e+07
4.86714e-09
1.14283e+07
4.86715e-09
1.14283e+07
4.86717e-09
1.14283e+07
4.86718e-09
1.14283e+07
4.8672e-09
1.14283e+07
4.86721e-09
1.14283e+07
4.86722e-09
1.14283e+07
4.86724e-09
1.14283e+07
4.86725e-09
1.14283e+07
4.86909e-09
1.14283e+07
4.86911e-09
1.14283e+07
4.86912e-09
1.14283e+07
4.86914e-09
1.14283e+07
4.86915e-09
1.14283e+07
4.86916e-09
1.14283e+07
4.86918e-09
1.14283e+07
4.86919e-09
1.14283e+07
4.86921e-09
1.14283e+07
4.86922e-09
1.14283e+07
4.86924e-09
1.14283e+07
4.86925e-09
1.14283e+07
4.86926e-09
1.14283e+07
4.86928e-09
1.14283e+07
4.86929e-09
1.14283e+07
4.86931e-09
1.14283e+07
4.86932e-09
1.14283e+07
4.86934e-09
1.14283e+07
4.86935e-09
1.14283e+07
4.86936e-09
1.14283e+07
4.86938e-09
1.14283e+07
4.86939e-09
1.14283e+07
4.86941e-09
1.14283e+07
4.86942e-09
1.14283e+07
4.86943e-09
1.14283e+07
4.86945e-09
1.14283e+07
4.86946e-09
1.14283e+07
4.86948e-09
1.14283e+07
4.86949e-09
1.14283e+07
4.86951e-09
1.14283e+07
4.86952e-09
1.14283e+07
4.86953e-09
1.14283e+07
4.86955e-09
1.14283e+07
4.86956e-09
1.14283e+07
4.86958e-09
1.14283e+07
4.86959e-09
1.14283e+07
4.86961e-09
1.14283e+07
4.86962e-09
1.14283e+07
4.86963e-09
1.14283e+07
4.86965e-09
1.14283e+07
4.86966e-09
1.14283e+07
4.86968e-09
1.14283e+07
4.86969e-09
1.14283e+07
4.8697e-09
1.14283e+07
4.86972e-09
1.14283e+07
4.86973e-09
1.14283e+07
4.86975e-09
1.14283e+07
4.86976e-09
1.14283e+07
4.86978e-09
1.14283e+07
4.86979e-09
1.14283e+07
4.8698e-09
1.14283e+07
4.86982e-09
1.14283e+07
4.86983e-09
1.14283e+07
4.86985e-09
1.14283e+07
4.86986e-09
1.14283e+07
4.86988e-09
1.14283e+07
4.86989e-09
1.14283e+07
4.8699e-09
1.14283e+07
4.86992e-09
1.14283e+07
4.86993e-09
1.14283e+07
4.86995e-09
1.14283e+07
4.86996e-09
1.14283e+07
4.86997e-09
1.14283e+07
4.86999e-09
1.14283e+07
4.87e-09
1.14283e+07
4.87002e-09
1.14283e+07
4.87003e-09
1.14283e+07
4.87005e-09
1.14283e+07
4.87006e-09
1.14283e+07
4.87007e-09
1.14283e+07
4.87009e-09
1.14283e+07
)
;

boundaryField
{
    movingWall
    {
        type            zeroGradient;
    }
    fixedWalls
    {
        type            zeroGradient;
    }
    frontAndBack
    {
        type            empty;
    }
}


// ************************************************************************* //
