/*--------------------------------*- C++ -*----------------------------------*\
| =========                 |                                                 |
| \\      /  F ield         | OpenFOAM: The Open Source CFD Toolbox           |
|  \\    /   O peration     | Version:  5.x                                   |
|   \\  /    A nd           | Web:      www.OpenFOAM.org                      |
|    \\/     M anipulation  |                                                 |
\*---------------------------------------------------------------------------*/
FoamFile
{
    version     2.0;
    format      ascii;
    class       volScalarField;
    location    "0.005";
    object      out_1;
}
// * * * * * * * * * * * * * * * * * * * * * * * * * * * * * * * * * * * * * //

dimensions      [0 2 -2 0 0 0 0];

internalField   nonuniform List<scalar> 
400
(
-0.399282
-0.399282
-0.399282
-0.399282
-0.399282
-0.399282
-0.399282
-0.399282
-0.399282
-0.399282
-0.399282
-0.399282
-0.399282
-0.399282
-0.399282
-0.399282
-0.399282
-0.399282
-0.399282
-0.399282
-0.399282
-0.399282
-0.399282
-0.399282
-0.399282
-0.399282
-0.399282
-0.399282
-0.399282
-0.399282
-0.399282
-0.399282
-0.399282
-0.399282
-0.399282
-0.399282
-0.399282
-0.399282
-0.399282
-0.399282
-0.399282
-0.399282
-0.399282
-0.399282
-0.399282
-0.399282
-0.399282
-0.399282
-0.399282
-0.399282
-0.399282
-0.399282
-0.399282
-0.399282
-0.399282
-0.399282
-0.399282
-0.399282
-0.399282
-0.399282
-0.399282
-0.399282
-0.399282
-0.399282
-0.399282
-0.399282
-0.399282
-0.399282
-0.399282
-0.399282
-0.399282
-0.399282
-0.399282
-0.399282
-0.399282
-0.399282
-0.399282
-0.399282
-0.399282
-0.399282
-0.399282
-0.399282
-0.399282
-0.399282
-0.399282
-0.399282
-0.399282
-0.399282
-0.399282
-0.399282
-0.399282
-0.399282
-0.399282
-0.399282
-0.399282
-0.399282
-0.399282
-0.399282
-0.399282
-0.399282
-0.399282
-0.399282
-0.399282
-0.399282
-0.399282
-0.399282
-0.399282
-0.399282
-0.399282
-0.399282
-0.399282
-0.399282
-0.399282
-0.399282
-0.399282
-0.399282
-0.399282
-0.399282
-0.399282
-0.399282
-0.399282
-0.399282
-0.399282
-0.399282
-0.399282
-0.399282
-0.399282
-0.399282
-0.399282
-0.399282
-0.399282
-0.399282
-0.399282
-0.399282
-0.399282
-0.399282
-0.399282
-0.399282
-0.399282
-0.399282
-0.399282
-0.399282
-0.399282
-0.399282
-0.399282
-0.399282
-0.399282
-0.399282
-0.399282
-0.399282
-0.399282
-0.399282
-0.399282
-0.399282
-0.399282
-0.399282
-0.399282
-0.399282
-0.399282
-0.399282
-0.399282
-0.399282
-0.399282
-0.399282
-0.399282
-0.399282
-0.399282
-0.399282
-0.399282
-0.399282
-0.399282
-0.399282
-0.399282
-0.399282
-0.399282
-0.399282
-0.399282
-0.399282
-0.399282
-0.399282
-0.399282
-0.399282
-0.399282
-0.399282
-0.399282
-0.399282
-0.399282
-0.399282
-0.399282
-0.399282
-0.399282
-0.399282
-0.399282
-0.399282
-0.399282
-0.399282
-0.399282
-0.399282
-0.399282
-0.399282
-0.399282
-0.399282
-0.399282
-0.399282
-0.399282
-0.399282
-0.399282
-0.399282
-0.399282
-0.399282
-0.399282
-0.399282
-0.399282
-0.399282
-0.399282
-0.399282
-0.399282
-0.399282
-0.399282
-0.399282
-0.399282
-0.399282
-0.399282
-0.399282
-0.399282
-0.399282
-0.399282
-0.399282
-0.399282
-0.399282
-0.399282
-0.399282
-0.399282
-0.399282
-0.399282
-0.399282
-0.399282
-0.399282
-0.399282
-0.399282
-0.399282
-0.399282
-0.399282
-0.399282
-0.399282
-0.399282
-0.399282
-0.399282
-0.399282
-0.399282
-0.399282
-0.399282
-0.399282
-0.399282
-0.399282
-0.399282
1.37237e-09
2.19039e+21
0
5.13342e-15
4.48416e-44
1.37244e-09
3.58732e-43
1.37237e-09
0
4.25995e-43
1.37287e-09
0
0
1.37289e-09
0
6.72623e-44
1.3724e-09
0
5.15678e-43
1.37234e-09
4.48416e-44
1.37236e-09
2.24208e-43
1.3724e-09
0
2.9147e-43
1.37287e-09
0
0
1.37261e-09
4.48416e-44
1.37252e-09
9.41673e-43
1.37242e-09
0
1.00893e-42
1.37243e-09
0
1.56945e-43
5.13342e-15
4.48416e-44
1.3711e-09
1.16588e-42
1.37244e-09
0
1.23314e-42
1.37288e-09
0
0
1.373e-09
0
1.37254e-09
8.96831e-44
1.37245e-09
0
1.56945e-43
1.37247e-09
0
1.37214e-09
5.13342e-15
4.48416e-44
1.37241e-09
3.13891e-43
1.37247e-09
0
3.81153e-43
1.37288e-09
0
0
1.373e-09
0
6.72623e-44
1.3725e-09
0
1.32293e-09
1.37234e-09
4.48416e-44
1.37239e-09
2.24208e-43
1.3725e-09
0
2.9147e-43
1.37289e-09
0
8.07148e-43
1.37251e-09
0
8.7441e-43
1.37252e-09
0
1.37231e-09
5.13342e-15
4.48416e-44
1.37242e-09
1.03136e-42
1.37253e-09
0
1.09862e-42
1.37289e-09
0
0
1.37288e-09
0
6.72623e-44
1.37255e-09
0
1.37221e-09
1.37244e-09
4.48416e-44
1.37246e-09
2.24208e-43
1.37256e-09
0
2.9147e-43
1.3729e-09
0
0
1.373e-09
4.48416e-44
1.37257e-09
0
1.12104e-43
1.37258e-09
0
1.37239e-09
5.13342e-15
4.48416e-44
1.37235e-09
2.69049e-43
1.37259e-09
0
3.36312e-43
1.37291e-09
0
0
1.37276e-09
8.07148e-43
1.3726e-09
0
8.7441e-43
1.37262e-09
0
1.3733e-09
5.13342e-15
)
;

boundaryField
{
    movingWall
    {
        type            zeroGradient;
    }
    fixedWalls
    {
        type            zeroGradient;
    }
    frontAndBack
    {
        type            empty;
    }
}


// ************************************************************************* //
