/*--------------------------------*- C++ -*----------------------------------*\
| =========                 |                                                 |
| \\      /  F ield         | OpenFOAM: The Open Source CFD Toolbox           |
|  \\    /   O peration     | Version:  5.x                                   |
|   \\  /    A nd           | Web:      www.OpenFOAM.org                      |
|    \\/     M anipulation  |                                                 |
\*---------------------------------------------------------------------------*/
FoamFile
{
    version     2.0;
    format      ascii;
    class       volScalarField;
    location    "0.005";
    object      out_1;
}
// * * * * * * * * * * * * * * * * * * * * * * * * * * * * * * * * * * * * * //

dimensions      [0 2 -2 0 0 0 0];

internalField   nonuniform List<scalar> 
400
(
5.80163e-14
-1.64645e+08
5.8536e-14
-1.64645e+08
5.8535e-14
-1.64645e+08
5.86129e-14
-1.64645e+08
5.86132e-14
-1.64645e+08
5.86144e-14
-1.64645e+08
5.86146e-14
-1.64645e+08
5.86148e-14
-1.64645e+08
5.8615e-14
-1.64645e+08
5.86171e-14
-1.64645e+08
5.86173e-14
-1.64645e+08
5.86175e-14
-1.64645e+08
5.86177e-14
-1.64645e+08
5.86179e-14
-1.64645e+08
5.86181e-14
-1.64645e+08
5.86184e-14
-1.64645e+08
5.86186e-14
-1.64645e+08
5.86224e-14
-1.64645e+08
5.86226e-14
-1.64645e+08
5.86228e-14
-1.64645e+08
5.8623e-14
-1.64645e+08
5.86232e-14
-1.64645e+08
5.86235e-14
-1.64645e+08
5.86237e-14
-1.64645e+08
5.86239e-14
-1.64645e+08
5.86241e-14
-1.64645e+08
5.86243e-14
-1.64645e+08
5.86245e-14
-1.64645e+08
5.86248e-14
-1.64645e+08
5.8625e-14
-1.64645e+08
5.86252e-14
-1.64645e+08
5.86254e-14
-1.64645e+08
5.86256e-14
-1.64645e+08
5.86329e-14
-1.64645e+08
5.86331e-14
-1.64645e+08
5.86333e-14
-1.64645e+08
5.86335e-14
-1.64645e+08
5.86338e-14
-1.64645e+08
5.8634e-14
-1.64645e+08
5.86342e-14
-1.64645e+08
5.86344e-14
-1.64645e+08
5.86346e-14
-1.64645e+08
5.86348e-14
-1.64645e+08
5.86351e-14
-1.64645e+08
5.86353e-14
-1.64645e+08
5.86355e-14
-1.64645e+08
5.86357e-14
-1.64645e+08
5.86359e-14
-1.64645e+08
5.86361e-14
-1.64645e+08
5.86364e-14
-1.64645e+08
5.86366e-14
-1.64645e+08
5.86368e-14
-1.64645e+08
5.8637e-14
-1.64645e+08
5.86372e-14
-1.64645e+08
5.86374e-14
-1.64645e+08
5.86377e-14
-1.64645e+08
5.86379e-14
-1.64645e+08
5.86381e-14
-1.64645e+08
5.86383e-14
-1.64645e+08
5.86385e-14
-1.64645e+08
5.86387e-14
-1.64645e+08
5.8639e-14
-1.64645e+08
5.86392e-14
-1.64645e+08
5.86394e-14
-1.64645e+08
5.86396e-14
-1.64645e+08
5.86538e-14
-1.64645e+08
5.8654e-14
-1.64645e+08
5.86543e-14
-1.64645e+08
5.86545e-14
-1.64645e+08
5.86547e-14
-1.64645e+08
5.86549e-14
-1.64645e+08
5.86551e-14
-1.64645e+08
5.86553e-14
-1.64645e+08
5.86556e-14
-1.64645e+08
5.86558e-14
-1.64645e+08
5.8656e-14
-1.64645e+08
5.86562e-14
-1.64645e+08
5.86564e-14
-1.64645e+08
5.86566e-14
-1.64645e+08
5.86569e-14
-1.64645e+08
5.86571e-14
-1.64645e+08
5.86573e-14
-1.64645e+08
5.86575e-14
-1.64645e+08
5.86577e-14
-1.64645e+08
5.86579e-14
-1.64645e+08
5.86582e-14
-1.64645e+08
5.86584e-14
-1.64645e+08
5.86586e-14
-1.64645e+08
5.86588e-14
-1.64645e+08
5.8659e-14
-1.64645e+08
5.86592e-14
-1.64645e+08
5.86595e-14
-1.64645e+08
5.86597e-14
-1.64645e+08
5.86599e-14
-1.64645e+08
5.86601e-14
-1.64645e+08
5.86603e-14
-1.64645e+08
5.86605e-14
-1.64645e+08
5.86608e-14
-1.64645e+08
5.8661e-14
-1.64645e+08
5.86612e-14
-1.64645e+08
5.86614e-14
-1.64645e+08
5.86616e-14
-1.64645e+08
5.86618e-14
-1.64645e+08
5.86621e-14
-1.64645e+08
5.86623e-14
-1.64645e+08
5.86625e-14
-1.64645e+08
5.86627e-14
-1.64645e+08
5.86629e-14
-1.64645e+08
5.86631e-14
-1.64645e+08
5.86634e-14
-1.64645e+08
5.86636e-14
-1.64645e+08
5.86638e-14
-1.64645e+08
5.8664e-14
-1.64645e+08
5.86642e-14
-1.64645e+08
5.86644e-14
-1.64645e+08
5.86647e-14
-1.64645e+08
5.86649e-14
-1.64645e+08
5.86651e-14
-1.64645e+08
5.86653e-14
-1.64645e+08
5.86655e-14
-1.64645e+08
5.86657e-14
-1.64645e+08
5.8666e-14
-1.64645e+08
5.86662e-14
-1.64645e+08
5.86664e-14
-1.64645e+08
5.86666e-14
-1.64645e+08
5.86668e-14
-1.64645e+08
5.8667e-14
-1.64645e+08
5.86673e-14
-1.64645e+08
5.86675e-14
-1.64645e+08
5.86956e-14
-1.64645e+08
5.86958e-14
-1.64645e+08
5.8696e-14
-1.64645e+08
5.86962e-14
-1.64645e+08
5.86964e-14
-1.64645e+08
5.86966e-14
-1.64645e+08
5.86969e-14
-1.64645e+08
5.86971e-14
-1.64645e+08
5.86973e-14
-1.64645e+08
5.86975e-14
-1.64645e+08
5.86977e-14
-1.64645e+08
5.86979e-14
-1.64645e+08
5.86982e-14
-1.64645e+08
5.86984e-14
-1.64645e+08
5.86986e-14
-1.64645e+08
5.86988e-14
-1.64645e+08
5.8699e-14
-1.64645e+08
5.86992e-14
-1.64645e+08
5.86995e-14
-1.64645e+08
5.86997e-14
-1.64645e+08
5.86999e-14
-1.64645e+08
5.87001e-14
-1.64645e+08
5.87003e-14
-1.64645e+08
5.87005e-14
-1.64645e+08
5.87008e-14
-1.64645e+08
5.8701e-14
-1.64645e+08
5.87012e-14
-1.64645e+08
5.87014e-14
-1.64645e+08
5.87016e-14
-1.64645e+08
5.87018e-14
-1.64645e+08
5.87021e-14
-1.64645e+08
5.87023e-14
-1.64645e+08
5.87025e-14
-1.64645e+08
5.87027e-14
-1.64645e+08
5.87029e-14
-1.64645e+08
5.87032e-14
-1.64645e+08
5.87034e-14
-1.64645e+08
5.87036e-14
-1.64645e+08
5.87038e-14
-1.64645e+08
5.8704e-14
-1.64645e+08
5.87042e-14
-1.64645e+08
5.87045e-14
-1.64645e+08
5.87047e-14
-1.64645e+08
5.87049e-14
-1.64645e+08
5.87051e-14
-1.64645e+08
5.87053e-14
-1.64645e+08
5.87055e-14
-1.64645e+08
5.87058e-14
-1.64645e+08
5.8706e-14
-1.64645e+08
5.87062e-14
-1.64645e+08
5.87064e-14
-1.64645e+08
5.87066e-14
-1.64645e+08
5.87068e-14
-1.64645e+08
5.87071e-14
-1.64645e+08
5.87073e-14
-1.64645e+08
5.87075e-14
-1.64645e+08
5.87077e-14
-1.64645e+08
5.87079e-14
-1.64645e+08
5.87081e-14
-1.64645e+08
5.87084e-14
-1.64645e+08
5.87086e-14
-1.64645e+08
5.87088e-14
-1.64645e+08
5.8709e-14
-1.64645e+08
5.87092e-14
-1.64645e+08
5.87094e-14
-1.64645e+08
5.87097e-14
-1.64645e+08
5.87099e-14
-1.64645e+08
5.87101e-14
-1.64645e+08
5.87103e-14
-1.64645e+08
5.87105e-14
-1.64645e+08
5.87107e-14
-1.64645e+08
)
;

boundaryField
{
    movingWall
    {
        type            zeroGradient;
    }
    fixedWalls
    {
        type            zeroGradient;
    }
    frontAndBack
    {
        type            empty;
    }
}


// ************************************************************************* //
