/*--------------------------------*- C++ -*----------------------------------*\
| =========                 |                                                 |
| \\      /  F ield         | OpenFOAM: The Open Source CFD Toolbox           |
|  \\    /   O peration     | Version:  5.x                                   |
|   \\  /    A nd           | Web:      www.OpenFOAM.org                      |
|    \\/     M anipulation  |                                                 |
\*---------------------------------------------------------------------------*/
FoamFile
{
    version     2.0;
    format      ascii;
    class       volScalarField;
    location    "0.005";
    object      p;
}
// * * * * * * * * * * * * * * * * * * * * * * * * * * * * * * * * * * * * * //

dimensions      [0 2 -2 0 0 0 0];

internalField   nonuniform List<scalar> 
400
(
-5.39995e-09
0.0615743
0.158729
0.252408
0.330226
0.4001
0.465123
0.526733
0.585451
0.641231
0.69367
0.742128
0.785788
0.823736
0.855121
0.879346
0.896151
0.905452
0.907255
0.901639
0.0724179
0.127688
0.20324
0.278585
0.347717
0.412226
0.473489
0.532274
0.588788
0.642806
0.693813
0.741136
0.783965
0.821355
0.852353
0.87622
0.892609
0.90144
0.902734
0.896623
0.165696
0.199254
0.248866
0.306075
0.364598
0.422619
0.47972
0.535775
0.590545
0.643533
0.694029
0.741257
0.784395
0.822456
0.854317
0.878976
0.895853
0.904752
0.905699
0.898923
0.241436
0.256437
0.287849
0.330513
0.379095
0.430674
0.483748
0.537438
0.591067
0.64384
0.694758
0.742833
0.787189
0.826834
0.860506
0.886894
0.90507
0.914591
0.915386
0.907779
0.288195
0.294347
0.31521
0.348071
0.389116
0.435566
0.485548
0.537717
0.591069
0.644571
0.696881
0.746644
0.792836
0.834523
0.870453
0.899108
0.919192
0.929883
0.930851
0.922408
0.314523
0.315222
0.329865
0.356703
0.392928
0.436194
0.484612
0.536546
0.590745
0.646058
0.700845
0.753238
0.801884
0.845908
0.884263
0.91544
0.937865
0.950246
0.951784
0.94259
0.323483
0.320292
0.331237
0.354851
0.388777
0.430998
0.47972
0.533056
0.589463
0.647768
0.706224
0.762433
0.814491
0.861448
0.902553
0.936545
0.961738
0.976337
0.978868
0.968996
0.315897
0.309539
0.318389
0.340968
0.374919
0.418273
0.469324
0.525947
0.586136
0.648662
0.711937
0.773268
0.830117
0.881217
0.926019
0.963602
0.992296
1.0098
1.01377
1.0032
0.291144
0.281916
0.289929
0.313514
0.349879
0.396686
0.452201
0.514138
0.579903
0.64798
0.717105
0.784734
0.847928
0.904968
0.955247
0.998024
1.03159
1.05304
1.05899
1.04756
0.247637
0.235775
0.244363
0.271262
0.312797
0.365725
0.427993
0.49728
0.570549
0.645768
0.721863
0.796818
0.867811
0.93283
0.990985
1.04136
1.08191
1.10885
1.11748
1.10492
0.182982
0.169028
0.18021
0.213306
0.263232
0.325386
0.396958
0.475552
0.558142
0.642338
0.726988
0.810593
0.890879
0.965931
1.03457
1.09538
1.14556
1.18008
1.1925
1.17864
0.0935269
0.0786401
0.0954658
0.138472
0.200437
0.275207
0.358957
0.448913
0.542403
0.637357
0.732616
0.826922
0.918542
1.0059
1.08769
1.16191
1.2248
1.26972
1.28795
1.27323
-0.0268656
-0.0404935
-0.0133781
0.0446544
0.123026
0.214055
0.313112
0.416903
0.523015
0.630304
0.738201
0.845666
0.951246
1.05362
1.15142
1.2423
1.32173
1.38141
1.40945
1.3958
-0.188803
-0.196666
-0.15172
-0.0710153
0.0297886
0.141519
0.259214
0.37957
0.500466
0.621748
0.743939
0.866613
0.988586
1.10866
1.22557
1.33704
1.43851
1.52021
1.56578
1.55816
-0.410389
-0.401969
-0.325966
-0.210991
-0.0793318
0.0587428
0.198756
0.338166
0.475894
0.612865
0.750689
0.889842
1.02975
1.16964
1.30884
1.44605
1.57772
1.69319
1.77013
1.77956
-0.723069
-0.673503
-0.542569
-0.376323
-0.20268
-0.0317632
0.134306
0.294807
0.450624
0.604263
0.758369
0.914371
1.07271
1.23384
1.39875
1.56844
1.74184
1.90873
2.04103
2.09199
-1.18459
-1.03683
-0.807435
-0.564998
-0.335438
-0.124455
0.0706795
0.253117
0.426842
0.596479
0.765875
0.93754
1.11345
1.29632
1.49029
1.70032
1.93009
2.17376
2.40429
2.55334
-1.89802
-1.52107
-1.11571
-0.762712
-0.463411
-0.207571
0.0170415
0.219654
0.40854
0.59085
0.771862
0.955443
1.14564
1.34838
1.5722
1.82789
2.12821
2.48224
2.88824
3.26586
-3.13653
-2.15054
-1.42436
-0.927495
-0.554639
-0.259567
-0.0130637
0.2026
0.40011
0.588705
0.774843
0.963717
1.16145
1.37706
1.62351
1.9191
2.29277
2.7902
3.51676
4.50242
-5.14957
-2.83014
-1.61465
-0.985808
-0.567912
-0.257984
-0.00766109
0.208011
0.40413
0.590478
0.773726
0.959602
1.15518
1.37075
1.62158
1.93225
2.3507
2.97939
4.1944
6.51431
)
;

boundaryField
{
    movingWall
    {
        type            zeroGradient;
    }
    fixedWalls
    {
        type            zeroGradient;
    }
    frontAndBack
    {
        type            empty;
    }
}


// ************************************************************************* //
