/*--------------------------------*- C++ -*----------------------------------*\
| =========                 |                                                 |
| \\      /  F ield         | OpenFOAM: The Open Source CFD Toolbox           |
|  \\    /   O peration     | Version:  5.x                                   |
|   \\  /    A nd           | Web:      www.OpenFOAM.org                      |
|    \\/     M anipulation  |                                                 |
\*---------------------------------------------------------------------------*/
FoamFile
{
    version     2.0;
    format      ascii;
    class       surfaceScalarField;
    location    "0.005";
    object      phi;
}
// * * * * * * * * * * * * * * * * * * * * * * * * * * * * * * * * * * * * * //

dimensions      [0 3 -1 0 0 0 0];

internalField   nonuniform List<scalar> 
760
(
-6.00681e-08
6.00682e-08
-2.42066e-07
1.81998e-07
-3.55197e-07
1.13131e-07
-4.59177e-07
1.0398e-07
-5.47615e-07
8.84383e-08
-6.20985e-07
7.33697e-08
-6.78702e-07
5.77168e-08
-7.19641e-07
4.09389e-08
-7.42761e-07
2.31198e-08
-7.47398e-07
4.63745e-09
-7.33201e-07
-1.41978e-08
-7.00134e-07
-3.30664e-08
-6.48688e-07
-5.14468e-08
-5.80013e-07
-6.86746e-08
-4.95887e-07
-8.41261e-08
-3.98554e-07
-9.7333e-08
-2.90549e-07
-1.08005e-07
-1.74686e-07
-1.15862e-07
-6.03159e-08
-1.14371e-07
-6.0316e-08
-4.97861e-08
1.09854e-07
-2.40217e-07
3.72429e-07
-4.59338e-07
3.32252e-07
-6.47573e-07
2.92215e-07
-8.12846e-07
2.53711e-07
-9.52144e-07
2.12667e-07
-1.06292e-06
1.68495e-07
-1.1434e-06
1.21416e-07
-1.19239e-06
7.21073e-08
-1.20933e-06
2.15763e-08
-1.19415e-06
-2.93714e-08
-1.14726e-06
-7.99642e-08
-1.06963e-06
-1.29067e-07
-9.63025e-07
-1.75284e-07
-8.29915e-07
-2.17236e-07
-6.73558e-07
-2.5369e-07
-4.98035e-07
-2.83528e-07
-3.08269e-07
-3.05628e-07
-1.17667e-07
-3.04972e-07
-1.77984e-07
-1.30703e-07
2.40558e-07
-3.08218e-07
5.49944e-07
-5.13505e-07
5.37539e-07
-7.06336e-07
4.85046e-07
-8.79079e-07
4.26454e-07
-1.02646e-06
3.60053e-07
-1.1447e-06
2.86729e-07
-1.23115e-06
2.07868e-07
-1.28411e-06
1.25064e-07
-1.3028e-06
4.02694e-08
-1.28716e-06
-4.50128e-08
-1.23756e-06
-1.29559e-07
-1.15495e-06
-2.11678e-07
-1.041e-06
-2.89238e-07
-8.98206e-07
-3.60029e-07
-7.29954e-07
-4.21942e-07
-5.40538e-07
-4.72944e-07
-3.35195e-07
-5.10972e-07
-1.28084e-07
-5.12082e-07
-3.06068e-07
-1.39791e-07
3.80349e-07
-3.48908e-07
7.59061e-07
-5.65303e-07
7.53934e-07
-7.67448e-07
6.87191e-07
-9.47689e-07
6.06694e-07
-1.10102e-06
5.13389e-07
-1.22387e-06
4.09574e-07
-1.31363e-06
2.97626e-07
-1.36843e-06
1.79867e-07
-1.38738e-06
5.9215e-08
-1.37041e-06
-6.19842e-08
-1.3179e-06
-1.82068e-07
-1.23065e-06
-2.98921e-07
-1.11016e-06
-4.09736e-07
-9.58758e-07
-5.11426e-07
-7.79808e-07
-6.00892e-07
-5.77703e-07
-6.75049e-07
-3.57911e-07
-7.30764e-07
-1.35986e-07
-7.34008e-07
-4.42053e-07
-1.56664e-07
5.37013e-07
-3.91172e-07
9.93569e-07
-6.27294e-07
9.90056e-07
-8.46334e-07
9.06231e-07
-1.04047e-06
8.00833e-07
-1.20456e-06
6.77472e-07
-1.33525e-06
5.40267e-07
-1.43036e-06
3.92735e-07
-1.4882e-06
2.37706e-07
-1.50785e-06
7.88639e-08
-1.48928e-06
-8.05478e-08
-1.4329e-06
-2.38453e-07
-1.33935e-06
-3.92472e-07
-1.20983e-06
-5.39253e-07
-1.04644e-06
-6.74814e-07
-8.52408e-07
-7.94925e-07
-6.3223e-07
-8.95227e-07
-3.91759e-07
-9.71235e-07
-1.48373e-07
-9.77394e-07
-5.90426e-07
-1.75848e-07
7.1286e-07
-4.42097e-07
1.25982e-06
-7.05734e-07
1.25369e-06
-9.47961e-07
1.14846e-06
-1.16108e-06
1.01395e-06
-1.33981e-06
8.56205e-07
-1.48106e-06
6.81512e-07
-1.58323e-06
4.94906e-07
-1.64515e-06
2.99625e-07
-1.666e-06
9.97204e-08
-1.64576e-06
-1.00793e-07
-1.58477e-06
-2.99445e-07
-1.48348e-06
-4.9376e-07
-1.3427e-06
-6.80035e-07
-1.16406e-06
-8.53445e-07
-9.50511e-07
-1.00848e-06
-7.06564e-07
-1.13917e-06
-4.38582e-07
-1.23922e-06
-1.66275e-07
-1.2497e-06
-7.56701e-07
-1.9983e-07
9.1269e-07
-5.05931e-07
1.56592e-06
-8.05362e-07
1.55312e-06
-1.07726e-06
1.42036e-06
-1.31407e-06
1.25076e-06
-1.51073e-06
1.05287e-06
-1.6646e-06
8.35386e-07
-1.77494e-06
6.05238e-07
-1.84151e-06
3.66194e-07
-1.8639e-06
1.22119e-07
-1.84204e-06
-1.22652e-07
-1.77609e-06
-3.65399e-07
-1.66612e-06
-6.03732e-07
-1.51229e-06
-8.33862e-07
-1.31548e-06
-1.05026e-06
-1.07797e-06
-1.24599e-06
-8.04099e-07
-1.41304e-06
-5.00798e-07
-1.54252e-06
-1.90715e-07
-1.55978e-06
-9.47416e-07
-2.30904e-07
1.14359e-06
-5.86924e-07
1.92194e-06
-9.3141e-07
1.89761e-06
-1.23983e-06
1.72877e-06
-1.50467e-06
1.51561e-06
-1.7218e-06
1.26999e-06
-1.8896e-06
1.00319e-06
-2.00846e-06
7.24095e-07
-2.07958e-06
4.37317e-07
-2.10348e-06
1.46021e-07
-2.08014e-06
-1.45995e-07
-2.00933e-06
-4.36205e-07
-1.89045e-06
-7.22613e-07
-1.7226e-06
-1.00171e-06
-1.50532e-06
-1.26754e-06
-1.23964e-06
-1.51167e-06
-9.29254e-07
-1.72343e-06
-5.81534e-07
-1.89024e-06
-2.22863e-07
-1.91846e-06
-1.17028e-06
-2.7135e-07
1.41494e-06
-6.90205e-07
2.34079e-06
-1.09042e-06
2.29782e-06
-1.44239e-06
2.08075e-06
-1.73887e-06
1.81209e-06
-1.97766e-06
1.50878e-06
-2.1594e-06
1.18493e-06
-2.28621e-06
8.50909e-07
-2.3611e-06
5.12203e-07
-2.38607e-06
1.70988e-07
-2.36144e-06
-1.70625e-07
-2.28646e-06
-5.11181e-07
-2.15943e-06
-8.49642e-07
-1.97779e-06
-1.18336e-06
-1.7389e-06
-1.50643e-06
-1.44155e-06
-1.80901e-06
-1.08782e-06
-2.07716e-06
-6.85052e-07
-2.293e-06
-2.6434e-07
-2.33917e-06
-1.43462e-06
-3.24221e-07
1.73917e-06
-8.22521e-07
2.8391e-06
-1.2906e-06
2.7659e-06
-1.6928e-06
2.48295e-06
-2.0229e-06
2.14219e-06
-2.2823e-06
1.76818e-06
-2.47572e-06
1.37835e-06
-2.60839e-06
9.83576e-07
-2.68547e-06
5.89281e-07
-2.71083e-06
1.96352e-07
-2.68546e-06
-1.95996e-07
-2.60797e-06
-5.88669e-07
-2.47509e-06
-9.82526e-07
-2.2818e-06
-1.37665e-06
-2.02215e-06
-1.76607e-06
-1.69117e-06
-2.14e-06
-1.28761e-06
-2.48072e-06
-8.17621e-07
-2.76299e-06
-3.17957e-07
-2.83883e-06
-1.75258e-06
-3.94261e-07
2.13343e-06
-9.93242e-07
3.43808e-06
-1.54222e-06
3.31488e-06
-1.99942e-06
2.94015e-06
-2.36193e-06
2.50469e-06
-2.63735e-06
2.04361e-06
-2.83667e-06
1.57767e-06
-2.97036e-06
1.11726e-06
-3.04665e-06
6.65571e-07
-3.07149e-06
2.21189e-07
-3.04668e-06
-2.20807e-07
-2.97006e-06
-6.65285e-07
-2.83621e-06
-1.11638e-06
-2.63668e-06
-1.57619e-06
-2.3607e-06
-2.04205e-06
-1.9973e-06
-2.50341e-06
-1.53917e-06
-2.93884e-06
-9.88713e-07
-3.31345e-06
-3.88741e-07
-3.4388e-06
-2.14132e-06
-4.88979e-07
2.62241e-06
-1.21542e-06
4.16452e-06
-1.85766e-06
3.95712e-06
-2.36972e-06
3.45222e-06
-2.75703e-06
2.89199e-06
-3.03799e-06
2.32457e-06
-3.23252e-06
1.77221e-06
-3.3584e-06
1.24314e-06
-3.42843e-06
7.35599e-07
-3.45092e-06
2.43679e-07
-3.42865e-06
-2.43084e-07
-3.3586e-06
-7.35332e-07
-3.23261e-06
-1.24237e-06
-3.03761e-06
-1.77118e-06
-2.75608e-06
-2.32358e-06
-2.36793e-06
-2.89156e-06
-1.8553e-06
-3.45147e-06
-1.21181e-06
-3.95694e-06
-4.84823e-07
-4.16579e-06
-2.62614e-06
-6.19958e-07
3.24236e-06
-1.50584e-06
5.0504e-06
-2.24871e-06
4.69999e-06
-2.80484e-06
4.00834e-06
-3.19769e-06
3.28485e-06
-3.46353e-06
2.59041e-06
-3.6355e-06
1.94418e-06
-3.73997e-06
1.34761e-06
-3.79536e-06
7.90986e-07
-3.81247e-06
2.60795e-07
-3.79511e-06
-2.60446e-07
-3.73969e-06
-7.90758e-07
-3.63519e-06
-1.34686e-06
-3.46308e-06
-1.9433e-06
-3.19694e-06
-2.58971e-06
-2.8035e-06
-3.285e-06
-2.24732e-06
-4.00766e-06
-1.50371e-06
-4.70054e-06
-6.17937e-07
-5.05157e-06
-3.24408e-06
-8.04421e-07
4.04678e-06
-1.88163e-06
6.1276e-06
-2.71609e-06
5.53445e-06
-3.28354e-06
4.5758e-06
-3.64361e-06
3.64491e-06
-3.85861e-06
2.80541e-06
-3.98003e-06
2.0656e-06
-4.04369e-06
1.41127e-06
-4.07342e-06
8.20711e-07
-4.08182e-06
2.69203e-07
-4.07305e-06
-2.69218e-07
-4.04318e-06
-8.20635e-07
-3.97922e-06
-1.41082e-06
-3.85763e-06
-2.06489e-06
-3.64216e-06
-2.80518e-06
-3.28223e-06
-3.64494e-06
-2.71507e-06
-4.57482e-06
-1.88078e-06
-5.53482e-06
-8.04119e-07
-6.12823e-06
-4.0482e-06
-1.06588e-06
5.11267e-06
-2.3477e-06
7.40942e-06
-3.22259e-06
6.40934e-06
-3.72712e-06
5.08033e-06
-3.98555e-06
3.90334e-06
-4.09605e-06
2.91592e-06
-4.12851e-06
2.09806e-06
-4.12625e-06
1.40901e-06
-4.1161e-06
8.10567e-07
-4.11149e-06
2.64586e-07
-4.11618e-06
-2.64521e-07
-4.12605e-06
-8.10769e-07
-4.12774e-06
-1.40912e-06
-4.09532e-06
-2.09731e-06
-3.98483e-06
-2.91567e-06
-3.72703e-06
-3.90273e-06
-3.22167e-06
-5.08018e-06
-2.34721e-06
-6.40929e-06
-1.0652e-06
-7.41024e-06
-5.1134e-06
-1.42809e-06
6.54075e-06
-2.85862e-06
8.83995e-06
-3.63049e-06
7.18122e-06
-3.93087e-06
5.38071e-06
-3.9753e-06
3.94777e-06
-3.90383e-06
2.84445e-06
-3.79777e-06
1.99199e-06
-3.70115e-06
1.31239e-06
-3.63643e-06
7.45852e-07
-3.61405e-06
2.42206e-07
-3.63684e-06
-2.41731e-07
-3.70168e-06
-7.45933e-07
-3.79816e-06
-1.31265e-06
-3.90384e-06
-1.99162e-06
-3.97495e-06
-2.84456e-06
-3.93051e-06
-3.94718e-06
-3.62984e-06
-5.38085e-06
-2.85794e-06
-7.18119e-06
-1.42615e-06
-8.84203e-06
-6.53955e-06
-1.87986e-06
8.42061e-06
-3.20985e-06
1.01699e-05
-3.54919e-06
7.52056e-06
-3.39452e-06
5.22604e-06
-3.06549e-06
3.61873e-06
-2.72025e-06
2.49921e-06
-2.42476e-06
1.6965e-06
-2.20674e-06
1.09437e-06
-2.07489e-06
6.14002e-07
-2.03102e-06
1.98341e-07
-2.07524e-06
-1.9752e-07
-2.20713e-06
-6.14035e-07
-2.42465e-06
-1.09512e-06
-2.71941e-06
-1.69686e-06
-3.0653e-06
-2.49868e-06
-3.39419e-06
-3.61829e-06
-3.54867e-06
-5.22636e-06
-3.20811e-06
-7.52175e-06
-1.88049e-06
-1.01697e-05
-8.42003e-06
-2.2063e-06
1.06269e-05
-2.69642e-06
1.06601e-05
-1.96492e-06
6.78906e-06
-9.90545e-07
4.25167e-06
-1.0766e-07
2.73585e-06
5.9348e-07
1.79807e-06
1.10915e-06
1.18083e-06
1.45792e-06
7.45599e-07
1.65893e-06
4.12992e-07
1.72454e-06
1.32729e-07
1.65881e-06
-1.3179e-07
1.45768e-06
-4.12898e-07
1.10906e-06
-7.46506e-07
5.94038e-07
-1.18184e-06
-1.06519e-07
-1.79812e-06
-9.89356e-07
-2.73545e-06
-1.96528e-06
-4.25044e-06
-2.69658e-06
-6.79045e-06
-2.20575e-06
-1.06605e-05
-1.06258e-05
-1.23158e-06
1.18585e-05
1.2573e-06
8.17119e-06
4.02887e-06
4.01748e-06
6.11429e-06
2.16625e-06
7.58538e-06
1.26476e-06
8.60178e-06
7.81667e-07
9.28807e-06
4.94538e-07
9.72834e-06
3.05326e-07
9.97433e-06
1.67008e-07
1.00534e-05
5.36409e-08
9.97413e-06
-5.25082e-08
9.72814e-06
-1.66907e-07
9.28822e-06
-3.06582e-07
8.6024e-06
-4.96031e-07
7.58574e-06
-7.81451e-07
6.11352e-06
-1.26323e-06
4.03015e-06
-2.16707e-06
1.25719e-06
-4.01748e-06
-1.23183e-06
-8.17148e-06
-1.18576e-05
1.18585e-05
2.00297e-05
2.40472e-05
2.62134e-05
2.74782e-05
2.82598e-05
2.87544e-05
2.90597e-05
2.92267e-05
2.92803e-05
2.92278e-05
2.90609e-05
2.87544e-05
2.82583e-05
2.74769e-05
2.62136e-05
2.40466e-05
2.00291e-05
1.18576e-05
)
;

boundaryField
{
    movingWall
    {
        type            calculated;
        value           uniform 0;
    }
    fixedWalls
    {
        type            calculated;
        value           uniform 0;
    }
    frontAndBack
    {
        type            empty;
        value           nonuniform 0();
    }
}


// ************************************************************************* //
